
dimens
10 10 3 /

tops
100*2540.508 /

dx
300*304.8

dy
300*304.8

dz
100*6.096 100*9.144 100*15.24

poro
300*0.3

permx
100*500.0 100*50.0 100*200.0

permy
100*500.0 100*50.0 100*200.0

permz
100*100 100*37.5 100*15.625

mapaxes
1 2
3 4 
5 6 /

mapunits
metres /

gridunit
'metres' /

SPECGRID
 10 10 3  1  F  /

GDORIENT
A B C D E /

satnum
50*1 50*2 50*1 50*2 50*1 50*2 /

