TITLE = "  1.00000E-02 [y]"
VARIABLES="X [m]","Y [m]","Z [m]","Liquid Pressure [Pa]","Liquid Saturation","Temperature [C]","Free Tracer [M]","Material ID"
ZONE T="1.00000E-02", STRANDID=1, SOLUTIONTIME=1.00000E-02, N=8, E=0, ZONETYPE=FEBRICK, VARLOCATION=(NODAL), DATAPACKING=BLOCK
>
Add explicit mesh vertex information here
>
 9.835395E+05  9.835961E+05  9.836023E+05  9.837277E+05  9.758246E+05  9.761218E+05  9.761521E+05  9.774590E+05
 5.648948E-01  5.660582E-01  5.661864E-01  5.687831E-01  4.439988E-01  4.476467E-01  4.480229E-01  4.649630E-01
 2.493876E+01  2.472907E+01  2.470745E+01  2.375056E+01  2.472681E+01  2.380550E+01  2.371115E+01  1.837336E+01
 1.001968E-05  1.197804E-05  1.212196E-05  1.387287E-04  1.028584E-05  4.075943E-05  4.311268E-05  9.992567E-04
 1  1  1  1  1  1  1  1
