TITLE = "  1.00000E-02 [y]"
VARIABLES="X [m]","Y [m]","Z [m]","Gas qy [m/y]"
ZONE T= "  1.00000E-02", I=   2, J=   1, K=   2, DATAPACKING=BLOCK
 4.500000E-01  1.450000E+00  4.500000E-01  1.450000E+00
 9.900000E-01  9.900000E-01  9.900000E-01  9.900000E-01
 4.995000E-01  4.995000E-01  1.499500E+00  1.499500E+00
-8.676053E-02 -2.245337E-01  1.562891E-01  4.502366E-01
