TITLE = "  1.00000E-02 [y]"
VARIABLES="X [m]","Y [m]","Z [m]","Air qx [kmol/y]"
ZONE T= "  1.00000E-02", I=   1, J=   2, K=   2, DATAPACKING=BLOCK
 9.000000E-01  9.000000E-01  9.000000E-01  9.000000E-01
 4.950000E-01  1.495000E+00  4.950000E-01  1.495000E+00
 4.995000E-01  4.995000E-01  1.499500E+00  1.499500E+00
-3.139579E-02 -8.843916E-02  5.610600E-02  1.777727E-01
