TITLE = "  1.00000E-02 [y]"
VARIABLES="X [m]","Y [m]","Z [m]","Liquid Pressure [Pa]","Liquid Saturation","Temperature [C]","Free Tracer [M]","Material ID"
ZONE T="1.00000E-02", STRANDID=1, SOLUTIONTIME=1.00000E-02, I=2, J=2, K=2, DATAPACKING=POINT
 4.500000E-01  4.950000E-01  4.995000E-01  9.835395E+05  5.648948E-01  2.493876E+01  1.001968E-05    1 
 1.450000E+00  4.950000E-01  4.995000E-01  9.835961E+05  5.660582E-01  2.472907E+01  1.197804E-05    1 
 4.500000E-01  1.495000E+00  4.995000E-01  9.836023E+05  5.661864E-01  2.470745E+01  1.212196E-05    1 
 1.450000E+00  1.495000E+00  4.995000E-01  9.837277E+05  5.687831E-01  2.375056E+01  1.387287E-04    1 
 4.500000E-01  4.950000E-01  1.499500E+00  9.758246E+05  4.439988E-01  2.472681E+01  1.028584E-05    1 
 1.450000E+00  4.950000E-01  1.499500E+00  9.761218E+05  4.476467E-01  2.380550E+01  4.075943E-05    1 
 4.500000E-01  1.495000E+00  1.499500E+00  9.761521E+05  4.480229E-01  2.371115E+01  4.311268E-05    1 
 1.450000E+00  1.495000E+00  1.499500E+00  9.774590E+05  4.649630E-01  1.837336E+01  9.992567E-04    1 
