TITLE = "   1.0000E-02 [y]"
VARIABLES="X [m]","Y [m]","Z [m]","qlx [m/y]","qly [m/y]","qlz [m/y]","qgx [m/y]","qgy [m/y]","qgz [m/y]","Material_ID"
ZONE T= "  1.00000E-02", I=    2, J=    2, K=    2, DATAPACKING=POINT
 4.500000E-01  4.950000E-01  4.995000E-01 -2.992123E-02 -3.323969E-02 -2.594914E-01 -7.838807E-02 -8.676053E-02  4.980138E-01    1 
 1.450000E+00  4.950000E-01  4.995000E-01 -2.992123E-02 -7.003379E-02 -2.980978E-01 -7.838807E-02 -2.245337E-01  4.898566E-01    1 
 4.500000E-01  1.495000E+00  4.995000E-01 -6.672434E-02 -3.323969E-02 -3.020915E-01 -2.161805E-01 -8.676053E-02  4.898328E-01    1 
 1.450000E+00  1.495000E+00  4.995000E-01 -6.672434E-02 -7.003379E-02 -5.009089E-01 -2.161805E-01 -2.245337E-01 -5.968143E-02    1 
 4.500000E-01  4.950000E-01  1.499500E+00 -3.834911E-02 -4.238411E-02 -2.594914E-01  1.411374E-01  1.562891E-01  4.980138E-01    1 
 1.450000E+00  4.950000E-01  1.499500E+00 -3.834911E-02 -1.901192E-01 -2.980978E-01  1.411374E-01  4.502366E-01  4.898566E-01    1 
 4.500000E-01  1.495000E+00  1.499500E+00 -1.858063E-01 -4.238411E-02 -3.020915E-01  4.349307E-01  1.562891E-01  4.898328E-01    1 
 1.450000E+00  1.495000E+00  1.499500E+00 -5.286921E-01 -1.901192E-01 -5.009089E-01  6.300980E-01  4.502366E-01 -5.968143E-02    1 
