TITLE = "  1.00000E-02 [y]"
VARIABLES="X [m]","Y [m]","Z [m]","qlx [m/y]","qly [m/y]","qlz [m/y]","qgx [m/y]","qgy [m/y]","qgz [m/y]","Material_ID"
ZONE T="1.00000E-02", STRANDID=1, SOLUTIONTIME=1.00000E-02, N=8, E=0, ZONETYPE=FEBRICK, VARLOCATION=(NODAL), DATAPACKING=BLOCK
>
Add explicit mesh vertex information here
>
-2.992124E-02 -2.992124E-02 -6.672434E-02 -6.672434E-02 -3.834911E-02 -3.834911E-02 -1.858063E-01 -5.286921E-01
-3.323969E-02 -7.003379E-02 -3.323969E-02 -7.003379E-02 -4.238411E-02 -1.901192E-01 -4.238411E-02 -1.901192E-01
-2.594914E-01 -2.980978E-01 -3.020915E-01 -5.009089E-01 -2.594914E-01 -2.980978E-01 -3.020915E-01 -5.009089E-01
-7.838806E-02 -7.838806E-02 -2.161805E-01 -2.161805E-01  1.411374E-01  1.411374E-01  4.349307E-01  6.300980E-01
-8.676053E-02 -2.245337E-01 -8.676053E-02 -2.245337E-01  1.562891E-01  4.502366E-01  1.562891E-01  4.502366E-01
 4.980138E-01  4.898566E-01  4.898328E-01 -5.968143E-02  4.980138E-01  4.898566E-01  4.898328E-01 -5.968143E-02
 1  1  1  1  1  1  1  1
