TITLE = "  1.00000E-02 [y]"
VARIABLES="X [m]","Y [m]","Z [m]","Gas qz [m/y]"
ZONE T= "  1.00000E-02", I=   2, J=   2, K=   1, DATAPACKING=BLOCK
 4.500000E-01  1.450000E+00  4.500000E-01  1.450000E+00
 4.950000E-01  4.950000E-01  1.495000E+00  1.495000E+00
 9.990000E-01  9.990000E-01  9.990000E-01  9.990000E-01
 4.980138E-01  4.898566E-01  4.898328E-01 -5.968143E-02
