TITLE = "  1.00000E-02 [y]"
VARIABLES="X [m]","Y [m]","Z [m]","Air qy [kmol/y]"
ZONE T= "  1.00000E-02", I=   2, J=   1, K=   2, DATAPACKING=BLOCK
 4.500000E-01  1.450000E+00  4.500000E-01  1.450000E+00
 9.900000E-01  9.900000E-01  9.900000E-01  9.900000E-01
 4.995000E-01  4.995000E-01  1.499500E+00  1.499500E+00
-3.159212E-02 -1.000429E-01  5.649051E-02  2.004119E-01
