TITLE = "  0.00000E+00 [s]"
VARIABLES="X [m]","Y [m]","Z [m]","Liquid Pressure [Pa]","Liquid Saturation","Material ID"
ZONE T="0.00000E+00", STRANDID=1, SOLUTIONTIME=0.00000E+00, N=24, E=15, ZONETYPE=FEBRICK, VARLOCATION=([4-6]=CELLCENTERED), DATAPACKING=BLOCK
# vertex x-coordinate
 5.000000E+00  5.000000E+00  5.000000E+00  5.000000E+00  2.500000E+00  2.500000E+00  2.500000E+00  2.500000E+00  2.500000E+00  2.500000E+00
 5.000000E+00  0.000000E+00  2.500000E+00  2.500000E+00  1.250000E+00  0.000000E+00  0.000000E+00  0.000000E+00  0.000000E+00  0.000000E+00
 2.500000E+00  0.000000E+00  0.000000E+00  0.000000E+00
# vertex y-coordinate
 5.000000E+00  2.500000E+00  5.000000E+00  2.500000E+00  5.000000E+00  5.000000E+00  2.500000E+00  0.000000E+00  2.500000E+00  0.000000E+00
 2.500000E+00  5.000000E+00  5.000000E+00  2.500000E+00  3.750000E+00  5.000000E+00  2.500000E+00  0.000000E+00  2.500000E+00  0.000000E+00
 0.000000E+00  5.000000E+00  2.500000E+00  0.000000E+00
# vertex z-coordinate
 5.000000E+00  5.000000E+00  2.500000E+00  2.500000E+00  2.500000E+00  5.000000E+00  5.000000E+00  5.000000E+00  2.500000E+00  2.500000E+00
 0.000000E+00  2.500000E+00  0.000000E+00  0.000000E+00  1.250000E+00  5.000000E+00  5.000000E+00  5.000000E+00  2.500000E+00  2.500000E+00
 0.000000E+00  0.000000E+00  0.000000E+00  0.000000E+00
 2.013250E+05  2.013250E+05  2.013250E+05  2.013250E+05  2.013250E+05  2.013250E+05  2.013250E+05  2.013250E+05  2.013250E+05  2.013250E+05
 2.013250E+05  2.013250E+05  2.013250E+05  2.013250E+05  2.013250E+05
 1.000000E+00  1.000000E+00  1.000000E+00  1.000000E+00  1.000000E+00  1.000000E+00  1.000000E+00  1.000000E+00  1.000000E+00  1.000000E+00
 1.000000E+00  1.000000E+00  1.000000E+00  1.000000E+00  1.000000E+00
 1  1  1  1  1  1  1  1  1  1
 1  1  1  1  1
 4  5  6  2  1  1  1  1
 4  3  5  5  1  1  1  1
 2  2  4  4  6  7  9  5
   8    8   10   10    2    7    9    4
  10   10   21   21    4    9   14   11
  19    9    5   12   17    7    6   16
   5   13   14   14   15   15   15   15
   5   14    9    9   15   15   15   15
   5    9   19   12   15   15   15   15
  13    5   12   22   15   15   15   15
  20   10    9   19   18    8    7   17
  24   21   14   23   20   10    9   19
  23   19    9   14   15   15   15   15
  22   12   19   23   15   15   15   15
  22   23   14   13   15   15   15   15
