TITLE = "  1.00000E-02 [y]"
VARIABLES="X [m]","Y [m]","Z [m]","4-Liquid Pressure [Pa]","5-Liquid Saturation","6-Free Tracer [M]","7-Material ID"
ZONE T="1.00000E-02", STRANDID=1, SOLUTIONTIME=1.00000E-02, I=2, J=2, K=2, DATAPACKING=POINT
 4.500000E-01  4.950000E-01  4.995000E-01  1.009783E+06  1.000000E+00  5.865424E-04    1 
 1.450000E+00  4.950000E-01  4.995000E-01  1.009783E+06  1.000000E+00  7.390592E-04    1 
 4.500000E-01  1.495000E+00  4.995000E-01  1.009783E+06  1.000000E+00  7.470930E-04    1 
 1.450000E+00  1.495000E+00  4.995000E-01  1.009783E+06  1.000000E+00  9.201102E-04    1 
 4.500000E-01  4.950000E-01  1.499500E+00  1.000000E+06  1.000000E+00  7.464768E-04    1 
 1.450000E+00  4.950000E-01  1.499500E+00  1.000000E+06  1.000000E+00  9.198587E-04    1 
 4.500000E-01  1.495000E+00  1.499500E+00  1.000000E+06  1.000000E+00  9.279410E-04    1 
 1.450000E+00  1.495000E+00  1.499500E+00  1.000000E+06  1.000000E+00  9.999380E-04    1 
