TITLE = "  1.00000E-02 [y]"
VARIABLES="X [m]","Y [m]","Z [m]","Liquid Pressure [Pa]","Liquid Saturation","Free Tracer [M]","Material ID"
ZONE T="1.00000E-02", STRANDID=1, SOLUTIONTIME=1.00000E-02, I=3, J=3, K=3, VARLOCATION=([4-7]=CELLCENTERED), DATAPACKING=BLOCK
 0.000000E+00  9.000000E-01  2.000000E+00  0.000000E+00  9.000000E-01  2.000000E+00  0.000000E+00  9.000000E-01  2.000000E+00  0.000000E+00 
 9.000000E-01  2.000000E+00  0.000000E+00  9.000000E-01  2.000000E+00  0.000000E+00  9.000000E-01  2.000000E+00  0.000000E+00  9.000000E-01 
 2.000000E+00  0.000000E+00  9.000000E-01  2.000000E+00  0.000000E+00  9.000000E-01  2.000000E+00 
 0.000000E+00  0.000000E+00  0.000000E+00  9.900000E-01  9.900000E-01  9.900000E-01  2.000000E+00  2.000000E+00  2.000000E+00  0.000000E+00 
 0.000000E+00  0.000000E+00  9.900000E-01  9.900000E-01  9.900000E-01  2.000000E+00  2.000000E+00  2.000000E+00  0.000000E+00  0.000000E+00 
 0.000000E+00  9.900000E-01  9.900000E-01  9.900000E-01  2.000000E+00  2.000000E+00  2.000000E+00 
 0.000000E+00  0.000000E+00  0.000000E+00  0.000000E+00  0.000000E+00  0.000000E+00  0.000000E+00  0.000000E+00  0.000000E+00  9.990000E-01 
 9.990000E-01  9.990000E-01  9.990000E-01  9.990000E-01  9.990000E-01  9.990000E-01  9.990000E-01  9.990000E-01  2.000000E+00  2.000000E+00 
 2.000000E+00  2.000000E+00  2.000000E+00  2.000000E+00  2.000000E+00  2.000000E+00  2.000000E+00 
 1.009783E+06  1.009783E+06  1.009783E+06  1.009783E+06  1.000000E+06  1.000000E+06  1.000000E+06  1.000000E+06
 1.000000E+00  1.000000E+00  1.000000E+00  1.000000E+00  1.000000E+00  1.000000E+00  1.000000E+00  1.000000E+00
 5.865424E-04  7.390592E-04  7.470930E-04  9.201102E-04  7.464768E-04  9.198587E-04  9.279410E-04  9.999380E-04
 1  1  1  1  1  1  1  1
