TITLE = "  1.00000E-02 [y]"
VARIABLES="X [m]","Y [m]","Z [m]","qlx [m/y]","qly [m/y]","qlz [m/y]","Material_ID"
ZONE T="1.00000E-02", STRANDID=1, SOLUTIONTIME=1.00000E-02, I=3, J=3, K=3, VARLOCATION=([4-7]=CELLCENTERED), DATAPACKING=BLOCK
 0.000000E+00  9.000000E-01  2.000000E+00  0.000000E+00  9.000000E-01  2.000000E+00  0.000000E+00  9.000000E-01  2.000000E+00  0.000000E+00 
 9.000000E-01  2.000000E+00  0.000000E+00  9.000000E-01  2.000000E+00  0.000000E+00  9.000000E-01  2.000000E+00  0.000000E+00  9.000000E-01 
 2.000000E+00  0.000000E+00  9.000000E-01  2.000000E+00  0.000000E+00  9.000000E-01  2.000000E+00 
 0.000000E+00  0.000000E+00  0.000000E+00  9.900000E-01  9.900000E-01  9.900000E-01  2.000000E+00  2.000000E+00  2.000000E+00  0.000000E+00 
 0.000000E+00  0.000000E+00  9.900000E-01  9.900000E-01  9.900000E-01  2.000000E+00  2.000000E+00  2.000000E+00  0.000000E+00  0.000000E+00 
 0.000000E+00  9.900000E-01  9.900000E-01  9.900000E-01  2.000000E+00  2.000000E+00  2.000000E+00 
 0.000000E+00  0.000000E+00  0.000000E+00  0.000000E+00  0.000000E+00  0.000000E+00  0.000000E+00  0.000000E+00  0.000000E+00  9.990000E-01 
 9.990000E-01  9.990000E-01  9.990000E-01  9.990000E-01  9.990000E-01  9.990000E-01  9.990000E-01  9.990000E-01  2.000000E+00  2.000000E+00 
 2.000000E+00  2.000000E+00  2.000000E+00  2.000000E+00  2.000000E+00  2.000000E+00  2.000000E+00 
 0.000000E+00  0.000000E+00  0.000000E+00  0.000000E+00  0.000000E+00  0.000000E+00  0.000000E+00  0.000000E+00
 0.000000E+00  0.000000E+00  0.000000E+00  0.000000E+00  0.000000E+00  0.000000E+00  0.000000E+00  0.000000E+00
-4.509846E-13 -4.509846E-13 -4.509846E-13 -4.509846E-13 -4.509846E-13 -4.509846E-13 -4.509846E-13 -4.509846E-13
 1  1  1  1  1  1  1  1
