TITLE = "  1.00000E-02 [y]"
VARIABLES="X [m]","Y [m]","Z [m]","qlx [m/y]","qly [m/y]","qlz [m/y]","Material_ID"
ZONE T="1.00000E-02", STRANDID=1, SOLUTIONTIME=1.00000E-02, N=27, E=8, ZONETYPE=FEBRICK, VARLOCATION=([4-7]=CELLCENTERED), DATAPACKING=BLOCK
# vertex x-coordinate
 0.000000E+00  9.000000E-01  2.000000E+00  0.000000E+00  9.000000E-01  2.000000E+00  0.000000E+00  9.000000E-01  2.000000E+00  0.000000E+00
 9.000000E-01  2.000000E+00  0.000000E+00  9.000000E-01  2.000000E+00  0.000000E+00  9.000000E-01  2.000000E+00  0.000000E+00  9.000000E-01
 2.000000E+00  0.000000E+00  9.000000E-01  2.000000E+00  0.000000E+00  9.000000E-01  2.000000E+00
# vertex y-coordinate
 0.000000E+00  0.000000E+00  0.000000E+00  9.900000E-01  9.900000E-01  9.900000E-01  2.000000E+00  2.000000E+00  2.000000E+00  0.000000E+00
 0.000000E+00  0.000000E+00  9.900000E-01  9.900000E-01  9.900000E-01  2.000000E+00  2.000000E+00  2.000000E+00  0.000000E+00  0.000000E+00
 0.000000E+00  9.900000E-01  9.900000E-01  9.900000E-01  2.000000E+00  2.000000E+00  2.000000E+00
# vertex z-coordinate
 0.000000E+00  0.000000E+00  0.000000E+00  0.000000E+00  0.000000E+00  0.000000E+00  0.000000E+00  0.000000E+00  0.000000E+00  9.990000E-01
 9.990000E-01  9.990000E-01  9.990000E-01  9.990000E-01  9.990000E-01  9.990000E-01  9.990000E-01  9.990000E-01  2.000000E+00  2.000000E+00
 2.000000E+00  2.000000E+00  2.000000E+00  2.000000E+00  2.000000E+00  2.000000E+00  2.000000E+00
-2.910578E-02 -2.910578E-02 -4.517392E-02 -4.517392E-02  2.754980E-02  2.754980E-02  4.147982E-02  1.855539E-02
-3.169226E-02 -4.769590E-02 -3.169226E-02 -4.769590E-02  2.994753E-02  4.392181E-02  2.994753E-02  4.392181E-02
 6.284262E-02  1.985383E-02  1.690761E-02 -8.862535E-02  6.284262E-02  1.985383E-02  1.690761E-02 -8.862535E-02
 1  1  1  1  1  1  1  1
   1    2    5    4   10   11   14   13
   2    3    6    5   11   12   15   14
   4    5    8    7   13   14   17   16
   5    6    9    8   14   15   18   17
  10   11   14   13   19   20   23   22
  11   12   15   14   20   21   24   23
  13   14   17   16   22   23   26   25
  14   15   18   17   23   24   27   26
