TITLE = "  1.00000E-02 [y]"
VARIABLES="X [m]","Y [m]","Z [m]","qlx [m/y]","qly [m/y]","qlz [m/y]","Material_ID"
ZONE T="1.00000E-02", STRANDID=1, SOLUTIONTIME=1.00000E-02, N=27, E=8, ZONETYPE=FEBRICK, VARLOCATION=([4-7]=CELLCENTERED), DATAPACKING=BLOCK
# vertex x-coordinate
 0.000000E+00  9.000000E-01  2.000000E+00  0.000000E+00  9.000000E-01  2.000000E+00  0.000000E+00  9.000000E-01  2.000000E+00  0.000000E+00
 9.000000E-01  2.000000E+00  0.000000E+00  9.000000E-01  2.000000E+00  0.000000E+00  9.000000E-01  2.000000E+00  0.000000E+00  9.000000E-01
 2.000000E+00  0.000000E+00  9.000000E-01  2.000000E+00  0.000000E+00  9.000000E-01  2.000000E+00
# vertex y-coordinate
 0.000000E+00  0.000000E+00  0.000000E+00  9.900000E-01  9.900000E-01  9.900000E-01  2.000000E+00  2.000000E+00  2.000000E+00  0.000000E+00
 0.000000E+00  0.000000E+00  9.900000E-01  9.900000E-01  9.900000E-01  2.000000E+00  2.000000E+00  2.000000E+00  0.000000E+00  0.000000E+00
 0.000000E+00  9.900000E-01  9.900000E-01  9.900000E-01  2.000000E+00  2.000000E+00  2.000000E+00
# vertex z-coordinate
 0.000000E+00  0.000000E+00  0.000000E+00  0.000000E+00  0.000000E+00  0.000000E+00  0.000000E+00  0.000000E+00  0.000000E+00  9.990000E-01
 9.990000E-01  9.990000E-01  9.990000E-01  9.990000E-01  9.990000E-01  9.990000E-01  9.990000E-01  9.990000E-01  2.000000E+00  2.000000E+00
 2.000000E+00  2.000000E+00  2.000000E+00  2.000000E+00  2.000000E+00  2.000000E+00  2.000000E+00
-2.895082E-02 -2.895082E-02 -4.492876E-02 -4.492876E-02  2.740167E-02  2.740167E-02  4.125928E-02  1.841561E-02
-3.149143E-02 -4.740651E-02 -3.149143E-02 -4.740651E-02  2.975764E-02  4.365842E-02  2.975764E-02  4.365842E-02
 6.246498E-02  1.972145E-02  1.685275E-02 -8.811793E-02  6.246498E-02  1.972145E-02  1.685275E-02 -8.811793E-02
 1  1  1  1  1  1  1  1
   1    2    5    4   10   11   14   13
   2    3    6    5   11   12   15   14
   4    5    8    7   13   14   17   16
   5    6    9    8   14   15   18   17
  10   11   14   13   19   20   23   22
  11   12   15   14   20   21   24   23
  13   14   17   16   22   23   26   25
  14   15   18   17   23   24   27   26
