TITLE = "  1.00000E-02 [y]"
VARIABLES="X [m]","Y [m]","Z [m]","Liquid Pressure [Pa]","Liquid Saturation","Temperature [C]","Free Tracer [M]","Material ID"
ZONE T="1.00000E-02", STRANDID=1, SOLUTIONTIME=1.00000E-02, N=27, E=8, ZONETYPE=FEBRICK, VARLOCATION=([4-8]=CELLCENTERED), DATAPACKING=BLOCK
# vertex x-coordinate
 0.000000E+00  9.000000E-01  2.000000E+00  0.000000E+00  9.000000E-01  2.000000E+00  0.000000E+00  9.000000E-01  2.000000E+00  0.000000E+00
 9.000000E-01  2.000000E+00  0.000000E+00  9.000000E-01  2.000000E+00  0.000000E+00  9.000000E-01  2.000000E+00  0.000000E+00  9.000000E-01
 2.000000E+00  0.000000E+00  9.000000E-01  2.000000E+00  0.000000E+00  9.000000E-01  2.000000E+00
# vertex y-coordinate
 0.000000E+00  0.000000E+00  0.000000E+00  9.900000E-01  9.900000E-01  9.900000E-01  2.000000E+00  2.000000E+00  2.000000E+00  0.000000E+00
 0.000000E+00  0.000000E+00  9.900000E-01  9.900000E-01  9.900000E-01  2.000000E+00  2.000000E+00  2.000000E+00  0.000000E+00  0.000000E+00
 0.000000E+00  9.900000E-01  9.900000E-01  9.900000E-01  2.000000E+00  2.000000E+00  2.000000E+00
# vertex z-coordinate
 0.000000E+00  0.000000E+00  0.000000E+00  0.000000E+00  0.000000E+00  0.000000E+00  0.000000E+00  0.000000E+00  0.000000E+00  9.990000E-01
 9.990000E-01  9.990000E-01  9.990000E-01  9.990000E-01  9.990000E-01  9.990000E-01  9.990000E-01  9.990000E-01  2.000000E+00  2.000000E+00
 2.000000E+00  2.000000E+00  2.000000E+00  2.000000E+00  2.000000E+00  2.000000E+00  2.000000E+00
 1.009789E+06  1.009790E+06  1.009790E+06  1.009791E+06  1.000002E+06  1.000001E+06  1.000001E+06  9.999999E+05
 1.000000E+00  1.000000E+00  1.000000E+00  1.000000E+00  1.000000E+00  1.000000E+00  1.000000E+00  1.000000E+00
 2.446489E+01  2.377562E+01  2.371563E+01  2.197620E+01  2.371856E+01  2.198271E+01  2.184083E+01  1.780390E+01
 5.829505E-04  7.386653E-04  7.485414E-04  9.202932E-04  7.446100E-04  9.182271E-04  9.269818E-04  9.980028E-04
 1  1  1  1  1  1  1  1
   1    2    5    4   10   11   14   13
   2    3    6    5   11   12   15   14
   4    5    8    7   13   14   17   16
   5    6    9    8   14   15   18   17
  10   11   14   13   19   20   23   22
  11   12   15   14   20   21   24   23
  13   14   17   16   22   23   26   25
  14   15   18   17   23   24   27   26
