TITLE = "  1.00000E+02 [s]"
VARIABLES="dist [m]","2-Free ion A(aq) [molal] obs (1) (2.00E-03 0.5 0.5)","3-A(s) VF obs (1) (2.00E-03 0.5 0.5)","4-A(s) Rate obs (1) (2.00E-03 0.5 0.5)","5-A(s) SI obs (1) (2.00E-03 0.5 0.5)"
ZONE T="  1.00000E+02", I=    3,J=1, K=1, DATAPACKING=POINT
 1.500000E-03  1.000000E-02  5.000000E+04 -4.783875E-12  1.000000E+00 
 4.500000E-03  9.999990E-03  5.000000E+04 -1.786825E-09  9.999990E-01 
 7.500000E-03  9.996915E-03  5.000000E+04 -5.508127E-07  9.996915E-01 
