TITLE = "  0.00000E+00 [y]"
VARIABLES="X [m]","Y [m]","Z [m]","Liquid qx [m/y]"
ZONE T= "  0.00000E+00", I=   3, J=   4, K=   4, DATAPACKING=BLOCK
 1.000000E+00  2.000000E+00  3.000000E+00  1.000000E+00  2.000000E+00  3.000000E+00  1.000000E+00  2.000000E+00  3.000000E+00  1.000000E+00
 2.000000E+00  3.000000E+00  1.000000E+00  2.000000E+00  3.000000E+00  1.000000E+00  2.000000E+00  3.000000E+00  1.000000E+00  2.000000E+00
 3.000000E+00  1.000000E+00  2.000000E+00  3.000000E+00  1.000000E+00  2.000000E+00  3.000000E+00  1.000000E+00  2.000000E+00  3.000000E+00
 1.000000E+00  2.000000E+00  3.000000E+00  1.000000E+00  2.000000E+00  3.000000E+00  1.000000E+00  2.000000E+00  3.000000E+00  1.000000E+00
 2.000000E+00  3.000000E+00  1.000000E+00  2.000000E+00  3.000000E+00  1.000000E+00  2.000000E+00  3.000000E+00
 5.000000E-01  5.000000E-01  5.000000E-01  1.500000E+00  1.500000E+00  1.500000E+00  2.500000E+00  2.500000E+00  2.500000E+00  3.500000E+00
 3.500000E+00  3.500000E+00  5.000000E-01  5.000000E-01  5.000000E-01  1.500000E+00  1.500000E+00  1.500000E+00  2.500000E+00  2.500000E+00
 2.500000E+00  3.500000E+00  3.500000E+00  3.500000E+00  5.000000E-01  5.000000E-01  5.000000E-01  1.500000E+00  1.500000E+00  1.500000E+00
 2.500000E+00  2.500000E+00  2.500000E+00  3.500000E+00  3.500000E+00  3.500000E+00  5.000000E-01  5.000000E-01  5.000000E-01  1.500000E+00
 1.500000E+00  1.500000E+00  2.500000E+00  2.500000E+00  2.500000E+00  3.500000E+00  3.500000E+00  3.500000E+00
 5.000000E-01  5.000000E-01  5.000000E-01  5.000000E-01  5.000000E-01  5.000000E-01  5.000000E-01  5.000000E-01  5.000000E-01  5.000000E-01
 5.000000E-01  5.000000E-01  1.500000E+00  1.500000E+00  1.500000E+00  1.500000E+00  1.500000E+00  1.500000E+00  1.500000E+00  1.500000E+00
 1.500000E+00  1.500000E+00  1.500000E+00  1.500000E+00  2.500000E+00  2.500000E+00  2.500000E+00  2.500000E+00  2.500000E+00  2.500000E+00
 2.500000E+00  2.500000E+00  2.500000E+00  2.500000E+00  2.500000E+00  2.500000E+00  3.500000E+00  3.500000E+00  3.500000E+00  3.500000E+00
 3.500000E+00  3.500000E+00  3.500000E+00  3.500000E+00  3.500000E+00  3.500000E+00  3.500000E+00  3.500000E+00
 0.000000E+00  0.000000E+00  0.000000E+00  0.000000E+00  0.000000E+00  0.000000E+00  0.000000E+00  0.000000E+00  0.000000E+00  0.000000E+00
 0.000000E+00  0.000000E+00  0.000000E+00  0.000000E+00  0.000000E+00  0.000000E+00  0.000000E+00  0.000000E+00  0.000000E+00  0.000000E+00
 0.000000E+00  0.000000E+00  0.000000E+00  0.000000E+00  0.000000E+00  0.000000E+00  0.000000E+00  0.000000E+00  0.000000E+00  0.000000E+00
 0.000000E+00  0.000000E+00  0.000000E+00  0.000000E+00  0.000000E+00  0.000000E+00  0.000000E+00  0.000000E+00  0.000000E+00  0.000000E+00
 0.000000E+00  0.000000E+00  0.000000E+00  0.000000E+00  0.000000E+00  0.000000E+00  0.000000E+00  0.000000E+00
